********************************************************************************
*                       GENERAL UTILITY LATTICE PROGRAM                        *
*                                 Julian Gale                                  *
*                       Curtin Institute for Computation                       *
*                           Department of Chemistry                            *
*                    Curtin University, Western Australia                      *
********************************************************************************
* Version = 5.1.1 * Last modified =  11th April 2019                           *
********************************************************************************
*  single       - perform a single point run                                   *
*  conv         - constant volume calculation                                  *
*  molq         - molecule option activated, but with Coulomb terms retained   *
********************************************************************************

  Job Started  at 01:27.22 20th December   2020                               

  Number of CPUs =     1


  Total number of configurations input =      1

********************************************************************************
*  Input for Configuration =   1                                               *
********************************************************************************

  Formula = CsPbI3                                                      

  Number of irreducible atoms/shells =       5


  Total number atoms/shells =       5

  Dimensionality = 3               :  Bulk   



  Cartesian lattice vectors (Angstroms) :

        6.168350    0.000000    0.000000
        0.000000    6.168350    0.000000
        0.676880    0.000000    6.131099

  Cell parameters (Angstroms/Degrees):

  a =       6.1683    alpha =  90.0000
  b =       6.1683    beta  =  83.7000
  c =       6.1683    gamma =  90.0000

  Initial cell volume =         233.279378 Angs**3

  Temperature of configuration =  0.000     K 

  Pressure of configuration =         0.000 GPa 

  Fractional coordinates of asymmetric unit :

--------------------------------------------------------------------------------
   No.  Atomic       x           y          z         Charge      Occupancy
        Label      (Frac)      (Frac)     (Frac)        (e)         (Frac)  
--------------------------------------------------------------------------------
      1 Cs    c    0.000000    0.000000    0.000167     1.00000    1.000000    
      2 Pb    c    0.500000    0.500000    0.498257     0.93414    1.000000    
      3 I     c    0.000000    0.500000    0.499209    -0.64471    1.000000    
      4 I     c    0.500000    0.000000    0.499209    -0.64471    1.000000    
      5 I     c    0.500000    0.500000    0.995964    -0.64471    1.000000    
--------------------------------------------------------------------------------



  Molecule list generated from bond lengths :

  Bonds between the following atom types will be excluded : 

   Pb    Core   - Pb    Core
   I     Core   - Pb    Core
   Br    Core   - Pb    Core
   Cs    Core   - Pb    Core
   I     Core   - I     Core
   Br    Core   - I     Core
   I     Core   - Cs    Core
   Br    Core   - Br    Core
   Br    Core   - Cs    Core
   Cs    Core   - Cs    Core


  Total number of molecules =     0


********************************************************************************
*  General input information                                                   *
********************************************************************************

  Species output for all configurations : 

--------------------------------------------------------------------------------
  Species    Type    Atomic    Atomic    Charge       Radii (Angs)     Library
                     Number     Mass       (e)     Cova   Ionic  VDW   Symbol
--------------------------------------------------------------------------------
    Cs       Core       55     132.91   1.000000   1.670  0.000  2.490          
    Pb       Core       82     207.20   0.934138   1.540  0.000  2.300          
    I        Core       53     126.91  -0.644713   1.400  0.000  2.050          
--------------------------------------------------------------------------------


  Lattice summation method               =    Ewald          (3-D)
                                         =    Parry          (2-D)
                                         =    Saunders et al (1-D)
  Accuracy factor for lattice sums       =   12.000


  Time limit = Infinity

  Maximum range for interatomic potentials =    100000.000000 Angstroms

  Intermolecular potentials :

--------------------------------------------------------------------------------
Atom  Types   Potential      Parameter       Value         Units   Cutoffs(Ang)
  1     2                                                            Min /  Max 
--------------------------------------------------------------------------------
Pb   c Pb   c Buckingham    Buckingham A     217862.55    eV        0.000 12.000
                            Buckingham rho  0.55395812    Ang       
                            Buckingham C     2242.7290    eV*Ang^6  
--------------------------------------------------------------------------------
Cs   c Pb   c Buckingham    Buckingham A     421358.56    eV        0.000 12.000
                            Buckingham rho  0.60672052E-01Ang       
                            Buckingham C     1537.0507    eV*Ang^6  
--------------------------------------------------------------------------------
Cs   c Cs   c Buckingham    Buckingham A     609931.50    eV        0.000 12.000
                            Buckingham rho  0.39064026    Ang       
                            Buckingham C     9525.4805    eV*Ang^6  
--------------------------------------------------------------------------------
I    c Pb   c Buckingham    Buckingham A     782103.75    eV        0.000 12.000
                            Buckingham rho  0.33231398    Ang       
                            Buckingham C     4619.4302    eV*Ang^6  
--------------------------------------------------------------------------------
I    c I    c Buckingham    Buckingham A     783248.38    eV        0.000 12.000
                            Buckingham rho  0.52898723    Ang       
                            Buckingham C     5596.9189    eV*Ang^6  
--------------------------------------------------------------------------------
I    c Cs   c Buckingham    Buckingham A     195768.42    eV        0.000 12.000
                            Buckingham rho  0.33534086    Ang       
                            Buckingham C     458.15408    eV*Ang^6  
--------------------------------------------------------------------------------

********************************************************************************
*  Output for configuration   1                                                *
********************************************************************************


  Components of energy : 

--------------------------------------------------------------------------------
  Interatomic potentials     =        3045.28275895 eV    
  Monopole - monopole (real) =          -2.62360376 eV    
  Monopole - monopole (recip)=          -8.11353903 eV    
  Monopole - monopole (total)=         -10.73714279 eV    
--------------------------------------------------------------------------------
  Total lattice energy       =        3034.54561616 eV    
--------------------------------------------------------------------------------
  Total lattice energy       =          292787.2647 kJ/(mole unit cells)
--------------------------------------------------------------------------------

  Peak dynamic memory used =       0.52 MB 


  Timing analysis for GULP :

--------------------------------------------------------------------------------
  Task / Subroutine                                          Time (Seconds)
--------------------------------------------------------------------------------
  Calculation of real space energy and derivatives                0.0004
--------------------------------------------------------------------------------
  Total CPU time                                                  0.0035
--------------------------------------------------------------------------------


  Job Finished at 01:27.22 20th December   2020                               

